TITLE="Unit Cell Mesh"
VARIABLES="X","Y"
zone N=3821,E=6139,f=fepoint,t="basis",et=triangle
  0.00000000   0.00000000
  1.00000000   0.00000000
  1.00000000   1.00000000
  0.00000000   1.00000000
  0.35168773   0.50144184
  0.38995627   0.47665614
  0.84261340   0.95914173
  0.78423262   0.90994424
  0.48313373   0.78617555
  0.46832827   0.71496642
  0.77815360   0.63497603
  0.72385436   0.62164396
  0.93755066   0.56600815
  0.88097531   0.54922587
  0.75365114   0.32666060
  0.82087088   0.32277340
  0.78420514   0.74782199
  0.77232087   0.69571197
  0.76426494   0.55949378
  0.81146705   0.55007821
  0.57251197   0.57789129
  0.57591003   0.51870072
  0.32988364   0.18270314
  0.34666836   0.12594286
  0.55136037   0.28129211
  0.47995961   0.27823991
  0.19503523   0.60385370
  0.25463477   0.59012628
  0.43421277   0.22135447
  0.46004522   0.18856353
  0.41926441   0.63671005
  0.39881161   0.59318393
  0.13076578   0.59874249
  0.10483822   0.54722947
  0.56721073   0.89001060
  0.52607727   0.87773544
  0.81312239   0.84842700
  0.80442160   0.80624700
  0.39111096   0.29692042
  0.33246905   0.26939160
  0.90497065   0.72027320
  0.85345739   0.70542681
  0.40357038   0.87475270
  0.46312362   0.86358130
  0.23638301   0.53088206
  0.28178701   0.50903195
  0.20918249   0.71881521
  0.15218751   0.67281878
  0.17208388   0.77783710
  0.11833812   0.76550692
  0.86855406   0.83532685
  0.89805591   0.78487313
  0.76302880   0.16567153
  0.68412924   0.15775247
  0.13882293   0.47751686
  0.21023108   0.46103314
  0.43021899   0.41128638
  0.49653900   0.37898961
  0.87551516   0.24068715
  0.87914085   0.16905084
  0.13071178   0.22916467
  0.17284222   0.19191532
  0.21565047   0.26627499
  0.25617555   0.23124900
  0.67108631   0.84498745
  0.73249370   0.80788457
  0.70353663   0.06128770
  0.74640340   0.03394630
  0.59171575   0.82296586
  0.58208227   0.77471215
  0.16275947   0.37823200
  0.16108653   0.30834800
  0.22742052   0.35708025
  0.26507547   0.33772975
  0.32667467   0.56660622
  0.37826133   0.54169178
  0.33770579   0.06224449
  0.29938421   0.04249351
  0.64886910   0.59489697
  0.70006293   0.54976708
  0.65252393   0.46666014
  0.72310805   0.43277586
  0.29322702   0.66042775
  0.30807498   0.61848426
  0.70514548   0.69304997
  0.66062653   0.65683603
  0.25670788   0.88988698
  0.23589012   0.85541302
  0.49020448   0.52408308
  0.44809151   0.50305289
  0.45546788   0.11657885
  0.40685409   0.05662315
  0.14724939   0.09528350
  0.13360861   0.03968850
  0.48515072   0.64387584
  0.53274125   0.63142616
  0.31410143   0.44096386
  0.33312058   0.38538814
  0.55133384   0.44672349
  0.60208613   0.39164251
  0.66473097   0.32345566
  0.64389700   0.25865233
  0.67989790   1.00000000
  0.69313282   0.93949205
  0.70779520   1.00000000
  0.06747612   0.00000000
  0.11241399   0.00000000
  0.14239487   0.00000000
  0.17009740   0.00000000
  0.20300096   0.00000000
  0.24724102   0.00000000
  0.28788155   0.00000000
  0.31720144   0.00000000
  0.34403765   0.00000000
  0.37526295   0.00000000
  0.41116130   0.00000000
  0.44700894   0.00000000
  0.48669237   0.00000000
  0.53858525   0.00000000
  0.60204524   0.00000000
  0.65994853   0.00000000
  0.70093054   0.00000000
  0.73018074   0.00000000
  0.75286680   0.00000000
  0.77519882   0.00000000
  0.80287302   0.00000000
  0.84117484   0.00000000
  0.89524382   0.00000000
  1.00000000   0.07840365
  1.00000000   0.13011236
  1.00000000   0.19249344
  1.00000000   0.25889429
  1.00000000   0.33872128
  1.00000000   0.41782308
  1.00000000   0.47712076
  1.00000000   0.52339202
  1.00000000   0.56598592
  1.00000000   0.61625743
  1.00000000   0.67402393
  1.00000000   0.72952002
  1.00000000   0.78598756
  1.00000000   0.84885877
  1.00000000   0.92420363
  0.00000000   0.90180862
  0.00000000   0.84516531
  0.00000000   0.77892756
  0.00000000   0.71010154
  0.00000000   0.64101750
  0.00000000   0.58253908
  0.00000000   0.52450532
  0.00000000   0.45228195
  0.00000000   0.36866596
  0.00000000   0.28935939
  0.00000000   0.21742657
  0.00000000   0.14293975
  0.00000000   0.07127417
  0.35068142   0.49701071
  0.35236034   0.49163672
  0.35705337   0.48527554
  0.36445114   0.47921258
  0.37300932   0.47494119
  0.38073349   0.47326002
  0.38632414   0.47392565
  0.83773357   0.96202457
  0.83147591   0.96233624
  0.82335013   0.96037239
  0.81208050   0.95485711
  0.80161548   0.94719076
  0.79363036   0.93930918
  0.78628474   0.92913741
  0.78297204   0.92146206
  0.78221858   0.91524214
  0.47051007   0.78607994
  0.45863119   0.78076911
  0.44893160   0.77050292
  0.44356897   0.75725800
  0.44320777   0.74297315
  0.44801140   0.72969151
  0.45678890   0.72008592
  0.77548569   0.63895196
  0.77037698   0.64154512
  0.76253819   0.64281625
  0.75136179   0.64199382
  0.74116331   0.63917208
  0.73406303   0.63582480
  0.72770435   0.63106775
  0.72437751   0.62640345
  0.93268812   0.57442516
  0.92426163   0.58024228
  0.91271967   0.58263093
  0.90228790   0.58119130
  0.89272559   0.57669997
  0.88435310   0.56840396
  0.88046163   0.55893296
  0.75550967   0.31525010
  0.76211822   0.30524600
  0.77311158   0.29788491
  0.78554296   0.29500791
  0.79822314   0.29643276
  0.80999172   0.30247754
  0.81770939   0.31165317
  0.77736843   0.74738038
  0.77094012   0.74345469
  0.76494330   0.73566681
  0.76115859   0.72551763
  0.76023382   0.71501666
  0.76226103   0.70539880
  0.76635170   0.69907415
  0.76468456   0.55019188
  0.76939988   0.54174465
  0.77802682   0.53548986
  0.78954858   0.53319156
  0.79991513   0.53565764
  0.80751055   0.54164916
  0.56316978   0.57507873
  0.55554414   0.56819201
  0.55054551   0.55747783
  0.54954308   0.54686135
  0.55175173   0.53646618
  0.55794364   0.52639449
  0.56630731   0.52042568
  0.32517001   0.17934351
  0.32233188   0.17353864
  0.32113859   0.16477138
  0.32404426   0.14766786
  0.32957727   0.13623457
  0.33534688   0.12952630
  0.34088561   0.12619859
  0.54911518   0.28800830
  0.54365563   0.29351011
  0.53460383   0.29798934
  0.52293450   0.30040118
  0.50895780   0.30007419
  0.49523014   0.29630622
  0.48659357   0.29107088
  0.48162347   0.28512320
  0.19570716   0.59846812
  0.19926980   0.59353572
  0.20598228   0.58851069
  0.21713233   0.58371508
  0.22907114   0.58128190
  0.23807894   0.58111793
  0.24631327   0.58270031
  0.25167462   0.58557725
  0.42982745   0.21532421
  0.42878696   0.20739016
  0.43161392   0.19823723
  0.43771291   0.19079508
  0.44519874   0.18655752
  0.45315591   0.18571173
  0.40981105   0.63863730
  0.40246502   0.63710469
  0.39629081   0.63352895
  0.39030004   0.62666690
  0.38703373   0.61808670
  0.38713446   0.60826075
  0.39129424   0.59923118
  0.12699211   0.59918809
  0.12270901   0.59746867
  0.11748473   0.59328038
  0.11144724   0.58589143
  0.10365088   0.57040161
  0.10131313   0.56115055
  0.10106153   0.55445933
  0.10223219   0.54999495
  0.56271809   0.89748931
  0.55498660   0.90221721
  0.54508877   0.90319371
  0.53624988   0.90030026
  0.52961248   0.89464498
  0.52573651   0.88645321
  0.80820024   0.84768593
  0.80361116   0.84397978
  0.79930937   0.83687466
  0.79630756   0.82232243
  0.79744661   0.81409496
  0.80019450   0.80887538
  0.38396522   0.30617332
  0.37332803   0.31182683
  0.36032984   0.31291890
  0.34928831   0.30978706
  0.33982509   0.30329317
  0.33236149   0.29259551
  0.32991543   0.28080022
  0.90162188   0.72506386
  0.89575559   0.72795355
  0.88684070   0.72905135
  0.87506264   0.72725409
  0.86413467   0.72250730
  0.85717142   0.71683341
  0.85374284   0.71126485
  0.40439856   0.86893302
  0.40828022   0.86365998
  0.41555774   0.85850060
  0.43317872   0.85296482
  0.44606113   0.85277855
  0.45471373   0.85494965
  0.46024257   0.85845745
  0.23552789   0.52469558
  0.23799005   0.51820457
  0.24415034   0.51119775
  0.25256068   0.50583190
  0.26155773   0.50282067
  0.27087700   0.50237817
  0.27748582   0.50450385
  0.20386595   0.72236997
  0.19687882   0.72320694
  0.18774270   0.72142696
  0.17517345   0.71541703
  0.16239175   0.70503569
  0.15416218   0.69432664
  0.15049303   0.68577242
  0.14983562   0.67876613
  0.16963169   0.78161734
  0.16470353   0.78419989
  0.15713292   0.78553373
  0.14633857   0.78494567
  0.13578533   0.78225964
  0.12843905   0.77895087
  0.12220693   0.77445048
  0.11889730   0.76997805
  0.86465436   0.83085674
  0.86319393   0.82440960
  0.86412299   0.81544870
  0.86882418   0.80342627
  0.87855923   0.79076004
  0.88591301   0.78555578
  0.89224780   0.78366679
  0.75913727   0.17775026
  0.75045508   0.18767944
  0.73737550   0.19435124
  0.72081506   0.19601972
  0.70357108   0.19095834
  0.69207835   0.18182023
  0.68554258   0.17036365
  0.13922720   0.47064871
  0.14297128   0.46410450
  0.15033123   0.45753688
  0.16350855   0.45106006
  0.17873041   0.44783172
  0.19112957   0.44811907
  0.20062356   0.45079619
  0.20685726   0.45503712
  0.42772737   0.40065068
  0.42988878   0.38933936
  0.43704748   0.37805840
  0.45114720   0.36782297
  0.46616924   0.36387658
  0.47946450   0.36519682
  0.48970225   0.37046993
  0.86471623   0.23767853
  0.85566044   0.23018771
  0.84928232   0.21840303
  0.84731215   0.20332608
  0.85079217   0.18857247
  0.85832751   0.17749198
  0.86809331   0.17095377
  0.12861976   0.22395565
  0.12938917   0.21770670
  0.13311842   0.20983076
  0.14107364   0.20040596
  0.15335909   0.19193509
  0.16163260   0.18919887
  0.16792873   0.18920086
  0.21105832   0.25743052
  0.21075238   0.24709037
  0.21510376   0.23655823
  0.22685114   0.22640492
  0.23790239   0.22362451
  0.24808925   0.22542454
  0.66760069   0.83450967
  0.66874778   0.82296574
  0.67490691   0.81116575
  0.68644148   0.80096269
  0.70077622   0.79553527
  0.71408683   0.79557145
  0.72483957   0.79992545
  0.70272571   0.05763500
  0.70403218   0.05322368
  0.70782983   0.04759848
  0.71461123   0.04120888
  0.72433108   0.03511785
  0.73218030   0.03206718
  0.73888230   0.03099547
  0.74343318   0.03167085
  0.58472383   0.82235312
  0.57828039   0.81817210
  0.57264543   0.81011093
  0.56940991   0.79390430
  0.57151753   0.78429735
  0.57586157   0.77796263
  0.15745156   0.37648353
  0.15316464   0.37199086
  0.14936902   0.36449897
  0.14635237   0.35233968
  0.14593717   0.33499575
  0.14836854   0.32270601
  0.15180133   0.31504110
  0.15586835   0.31034845
  0.22564319   0.34899974
  0.22796476   0.34062651
  0.23342490   0.33399320
  0.24161361   0.32951593
  0.25138068   0.32859328
  0.25954020   0.33158040
  0.32633218   0.56324685
  0.32787666   0.55950272
  0.33170933   0.55476654
  0.33841282   0.54926443
  0.34755242   0.54397106
  0.35738069   0.54010361
  0.36585787   0.53827399
  0.37195030   0.53821677
  0.37584305   0.53933489
  0.33279440   0.06742995
  0.32542244   0.06981733
  0.31589967   0.06885079
  0.30666986   0.06409734
  0.30034366   0.05689171
  0.29801065   0.04950238
  0.64719182   0.59061909
  0.64789081   0.58510131
  0.65087777   0.57827950
  0.65733141   0.56922972
  0.66441298   0.56200403
  0.67353708   0.55494362
  0.68332475   0.54967588
  0.69046730   0.54756802
  0.69602919   0.54756653
  0.65019655   0.45635101
  0.65237153   0.44534066
  0.65945029   0.43403947
  0.67793906   0.42119679
  0.69332260   0.41777888
  0.70656800   0.41932335
  0.71651953   0.42451230
  0.29060683   0.65826631
  0.28908217   0.65436012
  0.28869316   0.64823085
  0.29004335   0.63994122
  0.29332653   0.63108963
  0.29687718   0.62511218
  0.30103582   0.62059271
  0.30467850   0.61851579
  0.70141965   0.69527549
  0.69606990   0.69543701
  0.68892568   0.69344962
  0.68046695   0.68902236
  0.67031938   0.68090481
  0.66353738   0.67279750
  0.66013712   0.66620749
  0.65920615   0.66093689
  0.24797417   0.89256060
  0.23886302   0.89082885
  0.23271358   0.88653719
  0.22844216   0.88022417
  0.22674854   0.87076741
  0.22945780   0.86189771
  0.48460034   0.53052640
  0.47623649   0.53388554
  0.46588847   0.53342438
  0.45523313   0.52810335
  0.44864741   0.52010822
  0.44630769   0.51140398
  0.44920033   0.11917664
  0.44178641   0.11868166
  0.43277150   0.11506778
  0.42109323   0.10634889
  0.40965587   0.09220269
  0.40364170   0.07914179
  0.40196905   0.06957462
  0.40301704   0.06221848
  0.14167506   0.09471324
  0.13650943   0.09113912
  0.13126342   0.08421759
  0.12564333   0.06919687
  0.12456001   0.05689688
  0.12600659   0.04833327
  0.12893128   0.04277410
  0.48561114   0.63906622
  0.48894697   0.63433880
  0.49551910   0.62954277
  0.50576937   0.62550789
  0.51668239   0.62400651
  0.52476120   0.62496984
  0.52998465   0.62745816
  0.30566630   0.43564376
  0.30005270   0.42682251
  0.29813001   0.41510695
  0.29996240   0.40506512
  0.30465576   0.39603806
  0.31335333   0.38795695
  0.32319453   0.38442466
  0.54944170   0.44307280
  0.54949498   0.43818083
  0.55138141   0.43175423
  0.55600411   0.42282602
  0.56456536   0.41137031
  0.57864988   0.39824873
  0.58717078   0.39291236
  0.59342182   0.39050743
  0.59829307   0.39005482
  0.65619779   0.32398155
  0.64763629   0.32055402
  0.63918430   0.31280604
  0.63245898   0.30090317
  0.62934273   0.28219423
  0.63169605   0.27097240
  0.63665605   0.26319775
  0.35531986   0.50417233
  0.36091051   0.50483799
  0.36863470   0.50315678
  0.37719285   0.49888542
  0.38459063   0.49282247
  0.38928366   0.48646128
  0.39096257   0.48108730
  0.84462744   0.95384389
  0.84387398   0.94762397
  0.84056127   0.93994856
  0.83321565   0.92977679
  0.82388645   0.92076260
  0.81476551   0.91422892
  0.80349588   0.90871358
  0.79537010   0.90674978
  0.78911245   0.90706146
  0.49467310   0.78105611
  0.50345063   0.77145046
  0.50825423   0.75816882
  0.50789303   0.74388403
  0.50253040   0.73063910
  0.49283081   0.72037292
  0.48095194   0.71506202
  0.77763045   0.63021654
  0.77430367   0.62555224
  0.76794499   0.62079525
  0.75765860   0.61634791
  0.74731296   0.61412549
  0.73946983   0.61380374
  0.73163104   0.61507487
  0.72652233   0.61766803
  0.93806440   0.55630106
  0.93417287   0.54683000
  0.92580038   0.53853399
  0.91627097   0.53405249
  0.90580630   0.53260303
  0.89426434   0.53499174
  0.88583785   0.54080880
  0.75681263   0.33778083
  0.76453024   0.34695646
  0.77629888   0.35300124
  0.78897905   0.35442609
  0.80141044   0.35154909
  0.81240380   0.34418800
  0.81901228   0.33418390
  0.79017431   0.74445981
  0.79426497   0.73813522
  0.79629219   0.72851735
  0.79530233   0.71773082
  0.79158270   0.70786721
  0.78558588   0.70007932
  0.77915752   0.69615364
  0.76822144   0.56792283
  0.77581686   0.57391435
  0.78618342   0.57638043
  0.79770517   0.57408214
  0.80633217   0.56782734
  0.81104743   0.55938017
  0.58211470   0.57616633
  0.59047836   0.57019752
  0.59667027   0.56012577
  0.59888107   0.54969376
  0.59787649   0.53911412
  0.59287786   0.52839994
  0.58525223   0.52151328
  0.33566639   0.18244742
  0.34120512   0.17911969
  0.34697473   0.17241144
  0.35383838   0.15647835
  0.35541341   0.14387462
  0.35422012   0.13510735
  0.35138199   0.12930250
  0.54969651   0.27440879
  0.54472643   0.26846114
  0.53608990   0.26322576
  0.52466893   0.25982690
  0.51071531   0.25895992
  0.49671617   0.26154265
  0.48766437   0.26602188
  0.48220482   0.27152371
  0.19799536   0.60840273
  0.20335673   0.61127967
  0.21159106   0.61286205
  0.22371550   0.61229694
  0.23551577   0.60926229
  0.24368772   0.60546929
  0.25040019   0.60044432
  0.25396284   0.59551191
  0.44110209   0.22420628
  0.44905925   0.22336048
  0.45729607   0.21846940
  0.46310362   0.21079767
  0.46547103   0.20252785
  0.46443054   0.19459379
  0.42678177   0.63066280
  0.43029067   0.62402952
  0.43147877   0.61699420
  0.43002000   0.60800266
  0.42549959   0.60001177
  0.41787112   0.59381771
  0.40826496   0.59125668
  0.13337182   0.59597707
  0.13454247   0.59151268
  0.13429087   0.58482146
  0.13195312   0.57557040
  0.12415677   0.56008053
  0.11811928   0.55269164
  0.11289498   0.54850334
  0.10861190   0.54678392
  0.56755149   0.88129282
  0.56367552   0.87310100
  0.55593169   0.86685979
  0.54695261   0.86443603
  0.53830141   0.86552882
  0.53056991   0.87025666
  0.81734949   0.84579861
  0.82009739   0.84057903
  0.82123643   0.83235162
  0.81823462   0.81779933
  0.81393284   0.81069422
  0.80934376   0.80698806
  0.39366457   0.28551179
  0.39121851   0.27371651
  0.38375491   0.26301885
  0.37429169   0.25652492
  0.36325017   0.25339311
  0.35025197   0.25448519
  0.33961478   0.26013869
  0.90468514   0.71443516
  0.90125656   0.70886660
  0.89429331   0.70319265
  0.88336533   0.69844592
  0.87158728   0.69664866
  0.86267239   0.69774646
  0.85680610   0.70063615
  0.40645143   0.87987655
  0.41198027   0.88338435
  0.42063287   0.88555545
  0.43906218   0.88432866
  0.45113626   0.87983340
  0.45841378   0.87467402
  0.46229544   0.86940098
  0.24068417   0.53541017
  0.24729300   0.53753585
  0.25661227   0.53709334
  0.26605302   0.53386861
  0.27401966   0.52871627
  0.28017995   0.52170938
  0.28264210   0.51521844
  0.21153438   0.71286792
  0.21087697   0.70586157
  0.20720781   0.69730735
  0.19867912   0.68629074
  0.18583275   0.67598951
  0.17362730   0.67020702
  0.16449118   0.66842705
  0.15750405   0.66926402
  0.17152470   0.77336597
  0.16821508   0.76889354
  0.16198294   0.76439309
  0.15201169   0.76021725
  0.14134297   0.75803459
  0.13328907   0.75781024
  0.12571846   0.75914407
  0.12079030   0.76172662
  0.87436223   0.83653325
  0.88069701   0.83464420
  0.88805073   0.82944000
  0.89622265   0.81944698
  0.90248698   0.80475134
  0.90341604   0.79579037
  0.90195566   0.78934324
  0.76161540   0.15306035
  0.75507963   0.14160377
  0.74358690   0.13246566
  0.72768837   0.12753932
  0.70978248   0.12907276
  0.69670296   0.13574457
  0.68802071   0.14567374
  0.14219674   0.48351288
  0.14843044   0.48775384
  0.15792443   0.49043092
  0.17260738   0.49047652
  0.18770412   0.48670620
  0.19872276   0.48101312
  0.20608272   0.47444549
  0.20982680   0.46790129
  0.43705574   0.41980606
  0.44729352   0.42507920
  0.46058878   0.42639941
  0.47734085   0.42161053
  0.48971051   0.41221759
  0.49686921   0.40093663
  0.49903062   0.38962531
  0.88656265   0.23878424
  0.89632851   0.23224603
  0.90386385   0.22116554
  0.90734625   0.20636456
  0.90537363   0.19133498
  0.89899558   0.17955029
  0.88993979   0.17205948
  0.13562527   0.23187914
  0.14192140   0.23188113
  0.15019491   0.22914490
  0.16052336   0.22240432
  0.17043558   0.21124925
  0.17416483   0.20337330
  0.17493424   0.19712436
  0.22373675   0.27209947
  0.23392361   0.27389950
  0.24497487   0.27111909
  0.25672224   0.26096576
  0.26107362   0.25043362
  0.26076767   0.24009347
  0.67874044   0.85294658
  0.68949318   0.85730052
  0.70280379   0.85733670
  0.71720099   0.85187155
  0.72867310   0.84170622
  0.73483223   0.82990628
  0.73597932   0.81836236
  0.70650685   0.06356315
  0.71105766   0.06423853
  0.71775967   0.06316682
  0.72641283   0.05971190
  0.73603433   0.05346660
  0.74211019   0.04763552
  0.74590784   0.04201032
  0.74721426   0.03759900
  0.59793645   0.81971538
  0.60228050   0.81338066
  0.60438812   0.80377370
  0.60115254   0.78756708
  0.59551764   0.77950585
  0.58907419   0.77532482
  0.16797765   0.37623155
  0.17204466   0.37153891
  0.17547746   0.36387399
  0.17790884   0.35158426
  0.17749363   0.33424032
  0.17447698   0.32208103
  0.17068136   0.31458914
  0.16639446   0.31009647
  0.23295578   0.36322960
  0.24111532   0.36621672
  0.24968739   0.36563900
  0.25809494   0.36158761
  0.26453125   0.35418350
  0.26685280   0.34581026
  0.32909295   0.56896311
  0.33298570   0.57008123
  0.33907813   0.57002395
  0.34755531   0.56819439
  0.35738358   0.56432694
  0.36652318   0.55903357
  0.37322667   0.55353147
  0.37705934   0.54879528
  0.37860382   0.54505116
  0.33907935   0.05523562
  0.33674634   0.04784629
  0.33043373   0.04065125
  0.32120687   0.03589213
  0.31166756   0.03492067
  0.30429560   0.03730805
  0.65290278   0.59709746
  0.65846467   0.59709597
  0.66560727   0.59498811
  0.67539495   0.58972037
  0.68345165   0.58360088
  0.69160062   0.57543427
  0.69805419   0.56638449
  0.70104116   0.55956268
  0.70174021   0.55404490
  0.65911251   0.47492370
  0.66906399   0.48011264
  0.68230939   0.48165712
  0.70389360   0.47526255
  0.71618170   0.46539652
  0.72326046   0.45409533
  0.72543544   0.44308499
  0.29662350   0.66039622
  0.30026618   0.65831929
  0.30442482   0.65379983
  0.30859083   0.64650702
  0.31160790   0.63756126
  0.31260884   0.63068116
  0.31221983   0.62455189
  0.31069517   0.62064570
  0.70656580   0.68894911
  0.70563489   0.68367851
  0.70223457   0.67708850
  0.69617802   0.66970825
  0.68616462   0.66142583
  0.67684633   0.65643644
  0.66970211   0.65444899
  0.66435236   0.65461051
  0.26314020   0.88340229
  0.26584944   0.87453258
  0.26491430   0.86709219
  0.26131582   0.86037278
  0.25373498   0.85447115
  0.24462384   0.85273939
  0.49198833   0.51573199
  0.48964858   0.50702780
  0.48306289   0.49903262
  0.47240755   0.49371162
  0.46205950   0.49325049
  0.45369565   0.49660957
  0.45930496   0.11098352
  0.46035296   0.10362738
  0.45868030   0.09406021
  0.45256332   0.08083205
  0.44108638   0.06671795
  0.42955047   0.05813422
  0.42053559   0.05452034
  0.41312167   0.05402536
  0.15192673   0.09219790
  0.15485141   0.08663873
  0.15629798   0.07807512
  0.15432741   0.06215895
  0.14959458   0.05075441
  0.14434858   0.04383288
  0.13918294   0.04025876
  0.48790738   0.64784384
  0.49313080   0.65033215
  0.50120962   0.65129548
  0.51212263   0.64979410
  0.52237290   0.64575922
  0.52894503   0.64096320
  0.53228086   0.63623577
  0.32402745   0.44192734
  0.33386868   0.43839505
  0.34256622   0.43031394
  0.34727052   0.42125496
  0.34909201   0.41124505
  0.34716928   0.39952949
  0.34155571   0.39070824
  0.55512691   0.44831118
  0.55999815   0.44785857
  0.56624925   0.44545364
  0.57477009   0.44011727
  0.58548838   0.43064907
  0.59741592   0.41553998
  0.60203856   0.40661177
  0.60392499   0.40018517
  0.60397828   0.39529321
  0.67197192   0.31891024
  0.67693192   0.31113562
  0.67928523   0.29991379
  0.67781407   0.28632173
  0.66944367   0.26930195
  0.66099167   0.26155400
  0.65243024   0.25812644
  0.66997129   0.99174720
  0.66425705   0.98063993
  0.66436410   0.96184677
  0.67068821   0.95024788
  0.68082899   0.94243079
  0.71768677   0.99176115
  0.72337300   0.98066312
  0.72281551   0.96061802
  0.71600962   0.94929522
  0.70554930   0.94191116
  0.93257785   1.00000000
  0.89579791   1.00000000
  0.86477458   1.00000000
  0.83803743   1.00000000
  0.80900049   1.00000000
  0.77512693   1.00000000
  0.74690783   1.00000000
  0.72733569   1.00000000
  0.12476223   1.00000000
  0.19045013   1.00000000
  0.25459823   1.00000000
  0.32309547   1.00000000
  0.39082041   1.00000000
  0.45626760   1.00000000
  0.51727551   1.00000000
  0.57134908   1.00000000
  0.61243397   1.00000000
  0.64069629   1.00000000
  0.66030365   1.00000000
  0.38385090   0.48112184
  0.35861757   0.49752000
  0.37499854   0.48646680
  0.36689642   0.49181733
  0.79180044   0.91632164
  0.83502394   0.95274609
  0.80441934   0.92093414
  0.81381202   0.92441082
  0.81968200   0.93239135
  0.82762814   0.94138056
  0.79648834   0.92788792
  0.80634743   0.93359149
  0.81478459   0.94301611
  0.82250124   0.95040429
  0.47432891   0.72718650
  0.49054059   0.73844999
  0.49723446   0.75639427
  0.48974562   0.77081990
  0.45855197   0.73616594
  0.45723075   0.75450969
  0.46363193   0.77027911
  0.47672194   0.77154350
  0.47230992   0.74520242
  0.48289719   0.75672054
  0.47041309   0.75918609
  0.73160547   0.62347615
  0.76975548   0.63349062
  0.74521440   0.62687981
  0.75908005   0.63029438
  0.89157754   0.54944867
  0.90207314   0.54345155
  0.91373318   0.54434651
  0.92623687   0.55132848
  0.89301318   0.56326383
  0.90493977   0.57082140
  0.91600621   0.57248920
  0.92556065   0.56507832
  0.90498441   0.55586767
  0.91676015   0.55610782
  0.91365027   0.56407291
  0.80868322   0.32652780
  0.79566890   0.33939281
  0.77882540   0.34319437
  0.76708317   0.33473048
  0.80264646   0.31118074
  0.78613871   0.30756703
  0.77095342   0.31123066
  0.76799530   0.32280654
  0.79247087   0.32232264
  0.78061247   0.33022040
  0.78002250   0.31890956
  0.77458900   0.70542198
  0.78500831   0.71172869
  0.78537971   0.72213119
  0.78457797   0.73179847
  0.78246528   0.73967183
  0.76822329   0.71572781
  0.77366543   0.72641885
  0.77522194   0.73536777
  0.77743196   0.71659303
  0.80293876   0.55435395
  0.79494685   0.56191784
  0.78553724   0.56709284
  0.77411646   0.56034082
  0.79640776   0.54346597
  0.78621995   0.54469758
  0.77615041   0.54806435
  0.79287994   0.55224872
  0.78445464   0.55592138
  0.57804453   0.52899212
  0.58628494   0.53783381
  0.58782458   0.54951656
  0.58414793   0.56322378
  0.56484848   0.53352952
  0.56019849   0.54690915
  0.56114078   0.55839384
  0.57060617   0.56587416
  0.57480109   0.54314637
  0.57747638   0.55509758
  0.56880951   0.55351585
  0.34422761   0.13425733
  0.33446750   0.16860430
  0.34032717   0.14787184
  0.32796326   0.17604740
  0.48902771   0.27860737
  0.52762908   0.27449268
  0.53806752   0.27415395
  0.54438025   0.27933663
  0.52537429   0.28821391
  0.53754658   0.28510070
  0.51603216   0.26897323
  0.51486683   0.29102033
  0.50236350   0.27159768
  0.50168908   0.28695223
  0.51469964   0.28012642
  0.24538811   0.59225607
  0.20341416   0.60196501
  0.23281530   0.60132670
  0.21783711   0.59864920
  0.23020911   0.58986801
  0.45624089   0.19690238
  0.45660797   0.20788090
  0.45020208   0.21424231
  0.44116297   0.21578623
  0.44692445   0.19399913
  0.43999767   0.19900946
  0.43668592   0.20697616
  0.44683170   0.20497094
  0.40545791   0.60058546
  0.41801018   0.60622430
  0.42343199   0.61453092
  0.42271179   0.62387097
  0.39733884   0.61045969
  0.39652336   0.61983889
  0.40389955   0.62750947
  0.41273156   0.62705165
  0.40826598   0.61066967
  0.41507113   0.61683196
  0.40563151   0.61875010
  0.10774600   0.55341762
  0.12788063   0.59260809
  0.11289676   0.56652778
  0.12288825   0.57987380
  0.53492421   0.87779564
  0.54564011   0.87218857
  0.55307192   0.87769067
  0.55973393   0.88535279
  0.53545105   0.88922787
  0.54387581   0.89266640
  0.55281442   0.89456284
  0.54296678   0.88218433
  0.55048329   0.88645774
  0.80579907   0.81435311
  0.81194264   0.83770561
  0.80632281   0.82585430
  0.34425205   0.27110556
  0.36087590   0.26393652
  0.37442362   0.27127653
  0.38266674   0.28380859
  0.34515673   0.28769499
  0.35358229   0.30080479
  0.36811632   0.30257443
  0.37623763   0.29368556
  0.35878599   0.27683380
  0.37077042   0.28321418
  0.36210823   0.29080129
  0.86322105   0.70824075
  0.89405596   0.71265441
  0.89036202   0.72090024
  0.87444043   0.70660031
  0.87186468   0.71572727
  0.88216376   0.71393907
  0.45303428   0.86524761
  0.41224673   0.87313908
  0.44158089   0.86769748
  0.42710239   0.87045008
  0.27489796   0.51202202
  0.26774240   0.52134866
  0.25928533   0.52748364
  0.25106105   0.52753574
  0.24310641   0.52788001
  0.26376560   0.51032889
  0.25495788   0.51757199
  0.24625315   0.52047801
  0.16165870   0.68012166
  0.20029393   0.71191686
  0.18042026   0.68448913
  0.19041008   0.69722557
  0.17266367   0.69758058
  0.18529625   0.70865071
  0.12667197   0.76741886
  0.16455205   0.77606887
  0.14043070   0.76522124
  0.15114167   0.77271014
  0.13812684   0.77513647
  0.89289564   0.79354990
  0.87564564   0.82927084
  0.86998695   0.82625979
  0.87774932   0.81849456
  0.88612300   0.80507153
  0.69735497   0.15497223
  0.71390867   0.14216559
  0.73475909   0.14622627
  0.75000608   0.15648922
  0.70263588   0.17261362
  0.72253793   0.17911802
  0.74239087   0.17843139
  0.74976218   0.16806769
  0.71789825   0.15996428
  0.73619306   0.16468994
  0.19873093   0.46365029
  0.15030797   0.47490522
  0.18217362   0.47482878
  0.18361105   0.45959923
  0.16606082   0.47884154
  0.16777831   0.46351448
  0.48407635   0.38751894
  0.48041347   0.40444332
  0.46160594   0.41196805
  0.44482797   0.41145232
  0.47166422   0.37614441
  0.44998240   0.38663629
  0.43975395   0.39986441
  0.46733561   0.39451462
  0.45270118   0.40088713
  0.88200969   0.18092738
  0.89397520   0.19521973
  0.89135188   0.21402445
  0.88306755   0.22835797
  0.86672807   0.18655162
  0.86185980   0.20464273
  0.86393601   0.22210033
  0.87308532   0.22855829
  0.87854123   0.19959162
  0.87532282   0.21618383
  0.16557546   0.19814041
  0.13809220   0.22324456
  0.15626612   0.20657527
  0.14662965   0.21531661
  0.25056595   0.23977594
  0.24666396   0.25123930
  0.24016820   0.26167741
  0.22528021   0.26171288
  0.23841807   0.23320805
  0.22898300   0.23989913
  0.22077033   0.24896985
  0.23944890   0.24309139
  0.23344427   0.25112796
  0.72370476   0.81751943
  0.71895808   0.83473766
  0.70191038   0.84304696
  0.68543917   0.84425718
  0.71121222   0.80750978
  0.69344360   0.81361085
  0.68001330   0.82511234
  0.67970943   0.83618677
  0.70674866   0.82459009
  0.69126302   0.83111584
  0.74123412   0.03761513
  0.71188951   0.05594775
  0.73338538   0.04229094
  0.72442222   0.04784339
  0.58455729   0.78666818
  0.58952981   0.81201667
  0.59214520   0.79800457
  0.58109814   0.79999709
  0.16104852   0.31812745
  0.16149728   0.32936409
  0.16230366   0.36157146
  0.16191548   0.34401593
  0.16261694   0.37267470
  0.25868207   0.34337172
  0.25307617   0.35214970
  0.24688490   0.35831320
  0.23594232   0.35536271
  0.25041822   0.33625987
  0.24207605   0.33957228
  0.23474075   0.34457964
  0.24919887   0.34412012